3
Properties=species:S:1:pos:R:3:forces:R:3:energies:R:1 energy=-0.004993683984515689 free_energy=-0.004993683984515689 pbc="F F F"
Ar      -4.48400000       0.00000000       0.00000000       0.00050057       0.00000000       0.00000000      -0.00019493
He       0.19800000       0.00000000       0.00000000       0.00845614       0.00000000       0.00000000      -0.00248975
Ne       3.28600000       0.00000000       0.00000000      -0.00895671       0.00000000       0.00000000      -0.00230900
3
Properties=species:S:1:pos:R:3:energies:R:1:forces:R:3 energy=-0.004004742194545359 free_energy=-0.004004742194545359 pbc="F F F"
Ar      -4.34463716       0.00000000       0.00000000      -0.00024071       0.00063977       0.00000000       0.00000000
He       0.17233819       0.00000000       0.00000000      -0.00199511       0.00592357       0.00000000       0.00000000
Ne       3.40111820       0.00000000       0.00000000      -0.00176892      -0.00656334       0.00000000       0.00000000
3
Properties=species:S:1:pos:R:3:energies:R:1:forces:R:3 energy=-0.00321125705634315 free_energy=-0.00321125705634315 pbc="F F F"
Ar      -4.20764487       0.00000000       0.00000000      -0.00030424       0.00084067       0.00000000       0.00000000
He       0.13315936       0.00000000       0.00000000      -0.00159830       0.00377664       0.00000000       0.00000000
Ne       3.52898514       0.00000000       0.00000000      -0.00130872      -0.00461731       0.00000000       0.00000000
3
Properties=species:S:1:pos:R:3:energies:R:1:forces:R:3 energy=-0.0026640744022052437 free_energy=-0.0026640744022052437 pbc="F F F"
Ar      -4.07792910       0.00000000       0.00000000      -0.00039191       0.00112985       0.00000000       0.00000000
He       0.08061171       0.00000000       0.00000000      -0.00132476       0.00203686       0.00000000       0.00000000
Ne       3.66531197       0.00000000       0.00000000      -0.00094740      -0.00316671       0.00000000       0.00000000
3
Properties=species:S:1:pos:R:3:energies:R:1:forces:R:3 energy=-0.002395449964545446 free_energy=-0.002395449964545446 pbc="F F F"
Ar      -3.95063952       0.00000000       0.00000000      -0.00050952       0.00153505       0.00000000       0.00000000
He       0.02770576       0.00000000       0.00000000      -0.00119052       0.00067212       0.00000000       0.00000000
Ne       3.80328711       0.00000000       0.00000000      -0.00069541      -0.00220717       0.00000000       0.00000000
3
Properties=species:S:1:pos:R:3:energies:R:1:forces:R:3 energy=-0.002383732996116962 free_energy=-0.002383732996116962 pbc="F F F"
Ar      -3.81612780       0.00000000       0.00000000      -0.00067386       0.00212752       0.00000000       0.00000000
He      -0.02052659       0.00000000       0.00000000      -0.00118466      -0.00053714       0.00000000       0.00000000
Ne       3.93755195       0.00000000       0.00000000      -0.00052521      -0.00159038       0.00000000       0.00000000
3
Properties=species:S:1:pos:R:3:energies:R:1:forces:R:3 energy=-0.0024980446676400366 free_energy=-0.0024980446676400366 pbc="F F F"
Ar      -3.72408294       0.00000000       0.00000000      -0.00082149       0.00268121       0.00000000       0.00000000
He      -0.05267277       0.00000000       0.00000000      -0.00124185      -0.00140587       0.00000000       0.00000000
Ne       4.03355724       0.00000000       0.00000000      -0.00043471      -0.00127534       0.00000000       0.00000000
3
Properties=species:S:1:pos:R:3:energies:R:1:forces:R:3 energy=-0.002782212271234293 free_energy=-0.002782212271234293 pbc="F F F"
Ar      -3.61539228       0.00000000       0.00000000      -0.00104958       0.00356925       0.00000000       0.00000000
He      -0.09179994       0.00000000       0.00000000      -0.00138398      -0.00258336       0.00000000       0.00000000
Ne       4.14949875       0.00000000       0.00000000      -0.00034865      -0.00098589       0.00000000       0.00000000
3
Properties=species:S:1:pos:R:3:energies:R:1:forces:R:3 energy=-0.0032945750472786308 free_energy=-0.0032945750472786308 pbc="F F F"
Ar      -3.50103480       0.00000000       0.00000000      -0.00136999       0.00487102       0.00000000       0.00000000
He      -0.13119815       0.00000000       0.00000000      -0.00164013      -0.00409356       0.00000000       0.00000000
Ne       4.25900670       0.00000000       0.00000000      -0.00028445      -0.00077747       0.00000000       0.00000000
3
Properties=species:S:1:pos:R:3:energies:R:1:forces:R:3 energy=-0.004030630430610416 free_energy=-0.004030630430610416 pbc="F F F"
Ar      -3.39005071       0.00000000       0.00000000      -0.00178893       0.00665033       0.00000000       0.00000000
He      -0.16737554       0.00000000       0.00000000      -0.00200817      -0.00603259       0.00000000       0.00000000
Ne       4.37257618       0.00000000       0.00000000      -0.00023353      -0.00061774       0.00000000       0.00000000
3
Properties=species:S:1:pos:R:3:forces:R:3:energies:R:1 energy=-0.004993683984515689 free_energy=-0.004993683984515689 pbc="F F F"
Ar      -3.28600000       0.00000000       0.00000000       0.00895671       0.00000000       0.00000000      -0.00230900
He      -0.19800000       0.00000000       0.00000000      -0.00845614       0.00000000       0.00000000      -0.00248975
Ne       4.48400000       0.00000000       0.00000000      -0.00050057       0.00000000       0.00000000      -0.00019493
